REMARK  4 active torsions:
REMARK  status: ('A' for Active; 'I' for Inactive)
REMARK    1  A    between atoms: O2_2  and  C3_7 
REMARK    2  A    between atoms: C3_7  and  C12_16 
REMARK    3  A    between atoms: C12_16  and  C16_20 
REMARK    4  A    between atoms: C16_20  and  C17_21 
ROOT
HETATM    1  O1  UNL     1      -3.071  -1.373   1.239  1.00  0.00    -0.315 OA
HETATM    2  O3  UNL     1      -4.623   0.161   1.937  1.00  0.00    -0.264 OA
HETATM    3  C1  UNL     1      -0.807   0.593  -0.065  1.00  0.00    -0.005 C 
HETATM    4  C2  UNL     1      -2.091  -0.169  -0.520  1.00  0.00     0.044 C 
HETATM    5  C3  UNL     1       0.442  -0.256  -0.578  1.00  0.00     0.069 C 
HETATM    6  C4  UNL     1      -3.431   0.494  -0.168  1.00  0.00     0.051 C 
HETATM    7  C5  UNL     1      -2.226  -1.552   0.092  1.00  0.00     0.138 C 
HETATM    8  C6  UNL     1       0.284  -1.816  -0.370  1.00  0.00     0.019 C 
HETATM    9  C7  UNL     1      -0.849   2.024  -0.701  1.00  0.00     0.012 C 
HETATM   10  C8  UNL     1      -0.917  -2.216   0.503  1.00  0.00     0.040 C 
HETATM   11  C9  UNL     1      -3.326   2.018  -0.009  1.00  0.00     0.020 C 
HETATM   12  C10 UNL     1      -2.253   2.605  -0.919  1.00  0.00     0.002 C 
HETATM   13  C11 UNL     1      -0.713   0.803   1.478  1.00  0.00     0.019 C 
HETATM   14  C13 UNL     1      -3.793  -0.214   1.123  1.00  0.00     0.268 C 
HETATM   15  C14 UNL     1      -4.515   0.142  -1.203  1.00  0.00     0.026 C 
HETATM   16  C15 UNL     1       0.248  -2.624  -1.679  1.00  0.00     0.013 C 
ENDROOT
BRANCH   5  17
HETATM   17  O2  UNL     1       0.650  -0.003  -1.981  1.00  0.00    -0.389 OA
HETATM   18  H23 UNL     1      -0.175  -0.183  -2.459  1.00  0.00     0.210 HD
ENDBRANCH   5  17
BRANCH   5  19
HETATM   19  C12 UNL     1       1.765   0.206   0.061  1.00  0.00     0.043 C 
BRANCH  19  20
HETATM   20  C16 UNL     1       2.952  -0.470  -0.612  1.00  0.00     0.043 C 
BRANCH  20  21
HETATM   21  C17 UNL     1       4.251  -0.020   0.006  1.00  0.00    -0.034 A 
HETATM   22  C18 UNL     1       4.600  -0.139   1.352  1.00  0.00     0.033 A 
HETATM   23  C20 UNL     1       5.861   0.402   1.442  1.00  0.00     0.142 A 
HETATM   24  O4  UNL     1       6.283   0.835   0.225  1.00  0.00    -0.334 OA
HETATM   25  C19 UNL     1       5.279   0.568  -0.652  1.00  0.00     0.148 A 
ENDBRANCH  20  21
ENDBRANCH  19  20
ENDBRANCH   5  19
TORSDOF 4
